 Gaussian 09, Revision C.01,
 Gaussian 09:  EM64L-G09RevC.01 23-Sep-2011

 -----------------------------------------------------
 # b3lyp/6-31g* geom=connectivity td=(50-50,nstates=3)
 -----------------------------------------------------

 99/5=1,9=1/99;
 -------------------
 Title Card Required
 -------------------
 Charge =  0 Multiplicity = 1

                         Standard orientation:
 ---------------------------------------------------------------------
 Center     Atomic      Atomic             Coordinates (Angstroms)
 Number     Number       Type             X           Y           Z
 ---------------------------------------------------------------------
      1          6           0        1.171565   -1.449121    0.000000
      2          1           0        2.100090   -0.917387    0.000000
      3          1           0        1.169918   -2.519120    0.000000
      4          6           0       -0.002371   -0.772039    0.000000
      5          1           0       -0.930895   -1.303774    0.000000
      6          6           0        0.000000    0.767959    0.000000
      7          1           0        0.928525    1.299694    0.000000
      8          6           0       -1.169893    1.452004    0.000000
      9          1           0       -2.101560    0.925796    0.000000
     10          1           0       -1.161888    2.521974    0.000000
 ---------------------------------------------------------------------

 SCF Done:  E(RB3LYP) =  -155.984900948     A.U. after   12 cycles
 Normal termination of Gaussian 09 at Tue Mar  2 11:40:42 2021.
 SCF Done:  E(RB3LYP) =  -155.984900773     A.U. after    7 cycles
 SCF Done:  E(RB3LYP) =  -155.984922932     A.U. after    8 cycles
 SCF Done:  E(RB3LYP) =  -155.984877842     A.U. after    8 cycles
 SCF Done:  E(RB3LYP) =  -155.984905295     A.U. after    7 cycles

 Excitation energies and oscillator strengths:

 Excited state symmetry could not be determined.
 Excited State   1:      Triplet-?Sym    2.8668 eV  432.48 nm  f=0.0000  <S**2>=2.000
      14 -> 17        -0.17581
      15 -> 16         0.70464
      15 <- 16         0.15111
 This state for optimization and/or second-order correction.
 Total Energy, E(TD-HF/TD-KS) =  -155.879551030
 Copying the excited state density for this state as the 1-particle RhoCI density.

 Excited state symmetry could not be determined.
 Excited State   2:      Triplet-?Sym    4.6272 eV  267.95 nm  f=0.0000  <S**2>=2.000
      14 -> 16         0.53522
      15 -> 17        -0.47289

 Excited state symmetry could not be determined.
 Excited State   3:      Singlet-?Sym    6.0389 eV  205.31 nm  f=0.5906  <S**2>=0.000
      15 -> 16         0.70474
      15 <- 16        -0.10370

 Excited state symmetry could not be determined.
 Excited State   4:      Triplet-?Sym    6.8123 eV  182.00 nm  f=0.0000  <S**2>=2.000
      14 -> 16         0.46793
      15 -> 17         0.53008

 Excited state symmetry could not be determined.
 Excited State   5:      Singlet-?Sym    6.9336 eV  178.82 nm  f=0.0000  <S**2>=0.000
      14 -> 16         0.50843
      15 -> 17         0.49112

 Excited state symmetry could not be determined.
 Excited State   6:      Singlet-?Sym    7.5054 eV  165.19 nm  f=0.0001  <S**2>=0.000
      13 -> 16         0.70187

 Alpha  occ. eigenvalues --  -10.19692 -10.19662 -10.18044 -10.18019  -0.79031
 Alpha  occ. eigenvalues --   -0.72826  -0.59463  -0.55716  -0.46395  -0.45690
 Alpha  occ. eigenvalues --   -0.39200  -0.38746  -0.34548  -0.30926  -0.22852
 Alpha virt. eigenvalues --   -0.01812   0.07033   0.12179   0.12860   0.13122
 Alpha virt. eigenvalues --    0.18054   0.18561   0.21242   0.31702   0.32337
 Alpha virt. eigenvalues --    0.37307   0.47084   0.52232   0.53507   0.58038

 Mulliken atomic charges:
              1
     1  C   -0.317677
     2  H    0.143127
     3  H    0.139585
     4  C   -0.094064
     5  H    0.129208
     6  C   -0.094421
     7  H    0.128928
     8  C   -0.317557
     9  H    0.143099
    10  H    0.139771
 Sum of Mulliken atomic charges =   0.00000

 Dipole moment (field-independent basis, Debye):
    X=             -0.0033    Y=              0.0040    Z=              0.0000  Tot=              0.0051
 Quadrupole moment (field-independent basis, Debye-Ang):
   XX=            -23.5941   YY=            -22.7220   ZZ=            -27.6884
   XY=              0.9552   XZ=              0.0000   YZ=              0.0000

 SCF Done:  E(RB3LYP) =  -155.984896115     A.U. after    8 cycles
