 Gaussian 09, Revision C.01,
 Gaussian 09:  EM64L-G09RevC.01 23-Sep-2011

 ----------------------------------------------------
 # td=(50-50,nstates=3) b3lyp/6-31* geom=connectivity
 ----------------------------------------------------

 99/5=1,9=1/99;
 -------------------
 Title Card Required
 -------------------
 Charge =  0 Multiplicity = 1

                         Standard orientation:
 ---------------------------------------------------------------------
 Center     Atomic      Atomic             Coordinates (Angstroms)
 Number     Number       Type             X           Y           Z
 ---------------------------------------------------------------------
      1          6           0       -1.307446    2.814682    0.000000
      2          1           0       -0.375989    3.341262    0.000000
      3          1           0       -2.228129    3.359882    0.000000
      4          6           0       -1.325095    1.459597    0.000000
      5          1           0       -2.256552    0.933016    0.000000
      6          6           0        0.000000    0.674916    0.000000
      7          1           0        0.931457    1.201497    0.000000
      8          6           0       -0.009597   -0.680250    0.000000
      9          1           0       -0.937910   -1.212355    0.000000
     10          6           0        1.320136   -1.457043    0.000000
     11          1           0        2.248449   -0.924938    0.000000
     12          6           0        1.318591   -2.812243    0.000000
     13          1           0        0.393456   -3.349854    0.000000
     14          1           0        2.245687   -3.346464    0.000000
 ---------------------------------------------------------------------

 SCF Done:  E(RB3LYP) =  -233.384822068     A.U. after   13 cycles

 Excitation energies and oscillator strengths:

 Excited State   1:      Triplet-A'     2.3934 eV  518.03 nm  f=0.0000  <S**2>=2.000
      20 -> 25        -0.11532
      21 -> 24         0.17449
      22 -> 23         0.69745
      22 <- 23         0.14975
 This state for optimization and/or second-order correction.
 Total Energy, E(TD-HF/TD-KS) =  -233.296866514
 Copying the excited state density for this state as the 1-particle RhoCI density.

 Excited State   2:      Triplet-A'     3.8242 eV  324.21 nm  f=0.0000  <S**2>=2.000
      20 -> 24         0.14058
      21 -> 23         0.51981
      21 -> 25        -0.12835
      22 -> 24         0.45563

 Excited State   3:      Triplet-A'     4.8843 eV  253.84 nm  f=0.0000  <S**2>=2.000
      20 -> 23         0.47903
      21 -> 24         0.29820
      22 -> 25        -0.43013

 Excited State   4:      Singlet-A'     5.0221 eV  246.88 nm  f=0.9200  <S**2>=0.000
      22 -> 23         0.70793
      22 <- 23        -0.10149

 Excited State   5:      Singlet-A'     5.7861 eV  214.28 nm  f=0.0001  <S**2>=0.000
      21 -> 23         0.52584
      22 -> 24        -0.46917

 Excited State   6:      Singlet-A'     5.8416 eV  212.24 nm  f=0.0002  <S**2>=0.000
      20 -> 23         0.51028
      22 -> 25         0.49167

 The electronic state is 1-A'.
 Alpha  occ. eigenvalues --  -10.19760 -10.19733 -10.19568 -10.19494 -10.18014
 Alpha  occ. eigenvalues --  -10.17984  -0.80343  -0.76594  -0.71616  -0.60345
 Alpha  occ. eigenvalues --   -0.56277  -0.55647  -0.47596  -0.45973  -0.42201
 Alpha  occ. eigenvalues --   -0.40381  -0.38280  -0.37129  -0.33622  -0.32509
 Alpha  occ. eigenvalues --   -0.27751  -0.21168
 Alpha virt. eigenvalues --   -0.03461   0.03925   0.08454   0.10810   0.12561
 Alpha virt. eigenvalues --    0.13260   0.14501   0.15699   0.17645   0.19848
 Alpha virt. eigenvalues --    0.20572   0.29502   0.32629   0.32767   0.35991

 Mulliken atomic charges:
              1
     1  C   -0.344330
     2  H    0.143577
     3  H    0.142743
     4  C   -0.078727
     5  H    0.133120
     6  C   -0.127504
     7  H    0.131621
     8  C   -0.126932
     9  H    0.131685
    10  C   -0.079208
    11  H    0.132674
    12  C   -0.344646
    13  H    0.143225
    14  H    0.142702
 Sum of Mulliken atomic charges =   0.00000

 Dipole moment (field-independent basis, Debye):
    X=             -0.0069    Y=              0.0094    Z=              0.0000  Tot=              0.0117
 Quadrupole moment (field-independent basis, Debye-Ang):
   XX=            -32.5204   YY=            -34.1711   ZZ=            -41.0195
   XY=              0.5628   XZ=              0.0000   YZ=              0.0000

 Normal termination of Gaussian 09 at Tue Mar  2 12:18:11 2021.
