 Gaussian 09, Revision C.01,
 Gaussian 09:  EM64L-G09RevC.01 23-Sep-2011

 -----------------------------------------------------
 # td=(50-50,nstates=3) b3lyp/6-31g* geom=connectivity
 -----------------------------------------------------

 99/5=1,9=1/99;
 -------------------
 Title Card Required
 -------------------
 Charge =  0 Multiplicity = 1

                         Standard orientation:
 ---------------------------------------------------------------------
 Center     Atomic      Atomic             Coordinates (Angstroms)
 Number     Number       Type             X           Y           Z
 ---------------------------------------------------------------------
      1          6           0       -0.365820    4.336239    0.000000
      2          1           0       -1.434969    4.293567    0.000000
      3          1           0        0.129923    5.284468    0.000000
      4          6           0        0.362578    3.193434    0.000000
      5          1           0        1.431727    3.236105    0.000000
      6          6           0       -0.350921    1.828692    0.000000
      7          1           0       -1.420070    1.786021    0.000000
      8          6           0        0.370674    0.681579    0.000000
      9          1           0        1.440057    0.717898    0.000000
     10          6           0       -0.350921   -0.678899    0.000000
     11          1           0       -1.420305   -0.715217    0.000000
     12          6           0        0.363846   -1.830279    0.000000
     13          1           0        1.433426   -1.800314    0.000000
     14          6           0       -0.365820   -3.186445    0.000000
     15          1           0       -1.435400   -3.216409    0.000000
     16          6           0        0.342094   -4.342051    0.000000
     17          1           0        1.411833   -4.318443    0.000000
     18          1           0       -0.170471   -5.281294    0.000000
 ---------------------------------------------------------------------

 SCF Done:  E(RB3LYP) =  -310.784987290     A.U. after   14 cycles

 Excitation energies and oscillator strengths:

 Excited State   1:      Triplet-A'     2.1277 eV  582.70 nm  f=0.0000  <S**2>=2.000
      27 -> 32        -0.10844
      28 -> 31         0.18501
      29 -> 30         0.69055
      29 <- 30         0.14687
 This state for optimization and/or second-order correction.
 Total Energy, E(TD-HF/TD-KS) =  -310.706793945
 Copying the excited state density for this state as the 1-particle RhoCI density.

 Excited State   2:      Triplet-A'     3.2702 eV  379.13 nm  f=0.0000  <S**2>=2.000
      27 -> 31         0.13376
      28 -> 30         0.50969
      28 -> 32        -0.11729
      29 -> 31         0.45697

 Excited State   3:      Triplet-A'     4.3173 eV  287.18 nm  f=0.0000  <S**2>=2.000
      25 -> 31         0.14359
      27 -> 30         0.45351
      28 -> 31         0.33246
      28 -> 33         0.13111
      29 -> 32        -0.38300

 Excited State   4:      Singlet-A'     4.4008 eV  281.73 nm  f=1.2527  <S**2>=0.000
      29 -> 30         0.70935

 Excited State   5:      Singlet-A'     5.0281 eV  246.58 nm  f=0.0001  <S**2>=0.000
      28 -> 30         0.52571
      29 -> 31        -0.46796

 Excited State   6:      Singlet-A'     5.0906 eV  243.56 nm  f=0.0000  <S**2>=0.000
      28 -> 30         0.47118
      29 -> 31         0.52755
      28 <- 30        -0.11824
      29 <- 31        -0.12106

 The electronic state is 1-A'.
 Alpha  occ. eigenvalues --  -10.19760 -10.19727 -10.19645 -10.19625 -10.19513
 Alpha  occ. eigenvalues --  -10.19505 -10.17999 -10.17962  -0.80912  -0.78512
 Alpha  occ. eigenvalues --   -0.74943  -0.70900  -0.60880  -0.56883  -0.56416
 Alpha  occ. eigenvalues --   -0.55328  -0.47721  -0.45864  -0.45170  -0.41163
 Alpha  occ. eigenvalues --   -0.40057  -0.38442  -0.38075  -0.36124  -0.33197
 Alpha  occ. eigenvalues --   -0.33049  -0.30172  -0.25552  -0.20179
 Alpha virt. eigenvalues --   -0.04429   0.01552   0.06611   0.08876   0.10161
 Alpha virt. eigenvalues --    0.12776   0.12847   0.13074   0.14650   0.14876
 Alpha virt. eigenvalues --    0.17090   0.18632   0.19528   0.20475   0.26767

 Mulliken atomic charges:
              1
     1  C   -0.344848
     2  H    0.143436
     3  H    0.142610
     4  C   -0.078149
     5  H    0.132735
     6  C   -0.128344
     7  H    0.131129
     8  C   -0.128681
     9  H    0.131136
    10  C   -0.129424
    11  H    0.131032
    12  C   -0.127828
    13  H    0.131178
    14  C   -0.078621
    15  H    0.132250
    16  C   -0.345203
    17  H    0.143061
    18  H    0.142531
 Sum of Mulliken atomic charges =   0.00000

 Dipole moment (field-independent basis, Debye):
    X=              0.0021    Y=              0.0204    Z=              0.0000  Tot=              0.0205
 Quadrupole moment (field-independent basis, Debye-Ang):
   XX=            -42.7170   YY=            -45.4263   ZZ=            -54.0114
   XY=              0.6664   XZ=              0.0000   YZ=              0.0000

 Normal termination of Gaussian 09 at Tue Mar  2 12:08:07 2021.
